<?xml version="1.0" encoding="UTF-8"?>

<!-- generated on 06/20/21 14:26:57 by Eclipse SUMO GUI Version 1.8.0
<configuration xmlns:xsi="http://www.w3.org/2001/XMLSchema-instance" xsi:noNamespaceSchemaLocation="http://sumo.dlr.de/xsd/sumoConfiguration.xsd">

    <input>
        <net-file value="data/scenario/ingolstadt.net.xml"/>
        <route-files value="data/scenario/routes/ped.rou.xml,data/scenario/routes/BusRoutes.flow.xml,data/scenario/routes/InTAS_001.rou.xml,data/scenario/routes/InTAS_002.rou.xml,data/scenario/routes/InTAS_003.rou.xml,data/scenario/routes/InTAS_004.rou.xml,data/scenario/routes/InTAS_005.rou.xml,data/scenario/routes/InTAS_006.rou.xml,data/scenario/routes/InTAS_007.rou.xml,data/scenario/routes/InTAS_008.rou.xml,data/scenario/routes/InTAS_009.rou.xml,data/scenario/routes/InTAS_010.rou.xml,data/scenario/routes/InTAS_011.rou.xml,data/scenario/routes/InTAS_012.rou.xml,data/scenario/routes/InTAS_013.rou.xml,data/scenario/routes/InTAS_014.rou.xml,data/scenario/routes/InTAS_015.rou.xml,data/scenario/routes/InTAS_016.rou.xml,data/scenario/routes/InTAS_017.rou.xml,data/scenario/routes/InTAS_018.rou.xml,data/scenario/routes/InTAS_019.rou.xml,data/scenario/routes/InTAS_020.rou.xml,data/scenario/routes/InTAS_021.rou.xml,data/scenario/routes/InTAS_022.rou.xml"/>
        <additional-files value="data/scenario/BusStations.add.xml,data/scenario/InTAS_E1.add.xml,data/scenario/InTAS.poly.xml"/>
    </input>

    <output>
        <summary-output value="data/scenario/InTAS.simulation.summary.xml"/>
        <tripinfo-output value="data/scenario/InTAS.simulation.tripinfo.xml"/>
        <statistic-output value="data/scenario/InTAS.simulation.statistic.xml"/>
    </output>

    <time>
        <begin value="0"/>
        <end value="86400"/>
        <step-length value="0.1"/>
    </time>

    <processing>
        <threads value="10"/>
        <route-steps value="200"/>
        <ignore-junction-blocker value="15"/>
        <time-to-teleport value="300"/>
        <time-to-teleport.highways value="300"/>
        <max-depart-delay value="300"/>
        <default.carfollowmodel value="Krauss"/>
        <parking.maneuver value="true"/>
        <pedestrian.model value="striping"/>
        <pedestrian.striping.stripe-width value="0.55"/>
        <pedestrian.striping.jamtime value="30"/>
    </processing>

    <routing>
        <routing-algorithm value="dijkstra"/>
        <persontrip.transfer.car-walk value="allJunctions"/>
        <device.rerouting.probability value="0.82"/>
        <device.rerouting.explicit value="default_001,default_002,default_003,default_004,default_005,default_006,default_007,default_008,default_009,default_010,default_011,default_012,default_013,default_014,default_015,default_016,default_017,default_018,default_019,default_020,default_021,default_022,random_001,random_002,random_003,random_004,random_005,random_006,random_007,random_008,random_009,random_010,random_011,random_012,random_013,random_014,random_015,random_016,random_017,random_018,random_019,random_020,random_021,random_022"/>
        <device.rerouting.period value="300"/>
        <device.rerouting.threads value="10"/>
        <device.rerouting.synchronize value="true"/>
    </routing>

    <report>
        <verbose value="true"/>
        <xml-validation value="never"/>
        <xml-validation.routes value="never"/>
        <no-warnings value="true"/>
        <log value="data/scenario/InTAS.simulation.log"/>
    </report>

    <traci_server>
        <remote-port value="57465"/>
    </traci_server>

    <gui_only>
        <tracker-interval value="0.1"/>
    </gui_only>

</configuration>
-->

<tripinfos xmlns:xsi="http://www.w3.org/2001/XMLSchema-instance" xsi:noNamespaceSchemaLocation="http://sumo.dlr.de/xsd/tripinfo_file.xsd">
    <tripinfo id="h21950c1:1" depart="0.00" departLane="207091132#3_1" departPos="35.98" departSpeed="0.00" departDelay="0.00" arrival="0.10" arrivalLane="207091132#3_1" arrivalPos="35.98" arrivalSpeed="0.00" duration="0.10" routeLength="0.00" waitingTime="0.10" waitingCount="1" stopTime="0.00" timeLoss="0.10" rerouteNo="0" devices="tripinfo_h21950c1:1" vType="default_001" speedFactor="1.02" vaporized=""/>
